ITEM: TIMESTEP
256
ITEM: NUMBER OF ATOMS
4000
ITEM: BOX BOUNDS pp pp pp
0 11.01
0 11.01
-88.08 88.08
ITEM: ATOMS id type x y z vx vy vz fx fy fz 
717 1 3.0245656590599070e+00 5.6214482985229763e-01 -1.8924823235898032e+01 9.7539010712915031e-01 1.0184007397939783e+00 -1.4621883051862774e+00 -8.7833964270992423e-02 -4.7013185675786807e-02 3.8732436226661437e-01 
614 1 2.8971002014619147e+00 2.0028360247702985e+00 -2.0073231743660010e+01 1.1270851190336888e+00 -9.3057357241019711e-01 -6.3778627784857123e-01 3.1322217498601634e-01 7.8552346883990362e-02 1.1320493533442068e-01 
753 1 3.5331266935376546e+00 1.2009375876838813e+00 -1.9703531585127561e+01 1.2085582433221750e-01 8.3930263680901740e-01 -1.2184718704105557e+00 1.4598327026040803e-01 5.8930382154106335e-02 3.7574357201038278e-01 
626 1 3.0991967597247525e+00 2.7227040866232186e+00 -1.9260033268433698e+01 8.0778946879903446e-01 -1.3185873144595304e+00 1.4047951109786787e+00 4.6055733383158575e-04 -2.0299330718442210e-01 -3.5071561703137510e-01 
14 1 2.3769330846690120e+00 3.5085935477297823e+00 -1.9140834825346687e+01 -5.3586214932761211e-01 -6.3450226376591512e-01 1.0559042408361892e+00 -2.8036539389987500e-02 -2.8810226455828980e-01 4.7683884043818836e-01 
933 1 2.8180049133506966e+00 1.6827402917262677e+00 -1.9022614422161247e+01 -5.7693136936840950e-01 -1.1358098394348424e+00 -1.2983579110103907e+00 -9.5774785170804622e-03 -1.1148632419457744e-01 9.8107216889049442e-02 
623 1 2.2733793653039305e+00 2.5858259536958013e+00 -1.8506772125536447e+01 1.6638920198438048e-01 3.8040246255086158e-01 -1.0392711256234148e+00 7.5141149541644178e-02 -1.2765515261370747e-01 5.7197047541332668e-01 
395 1 1.3676230804551894e+00 3.0913204125817693e+00 -1.9040548789011240e+01 -8.5433763551801223e-01 1.0713188207095401e+00 -5.5833451667628187e-01 -2.9648834535531937e-01 3.2391921349692654e-02 5.8248700173349166e-01 
225 1 2.1636850987592854e-01 4.6552488066678599e-01 -1.8553659300500179e+01 -1.2776532260858098e+00 1.7417655505646296e-01 -7.9673673604177730e-01 -7.1336011383162923e-03 2.0034150794884731e-01 5.5874611637134919e-02 
617 1 3.1139592098036850e+00 3.3225899098006013e+00 -1.8361859740350607e+01 -1.4508332611784731e+00 5.1223080101555374e-01 -7.8088581525517753e-01 1.1068866453879936e-01 3.1027340849687179e-01 2.2670946080624915e-01 
116 1 3.1470881236488890e+00 3.6525099947655075e+00 -1.9937985871902761e+01 4.0849694310965734e-01 1.1347392465360739e+00 -1.4241693545857117e+00 -6.5935536539268022e-02 -2.0896748856111916e-01 3.2611744688355010e-01 
247 1 2.2807435997395116e+00 1.2740429312679696e-01 -1.9603213243670428e+01 4.9892605435289517e-01 1.1907174285551170e+00 1.2254890528009084e+00 7.6426405030621633e-02 -4.2895201610343804e-02 5.1540704693367156e-01 
411 1 3.2380804026459620e-01 3.2435424160848001e+00 -1.9383432591688614e+01 6.4217124572742557e-01 4.3622221787778376e-01 -1.0522901327122258e+00 2.0620395088614574e-01 1.2960363494963459e-01 3.8344552058644865e-01 
713 1 3.2628674496526160e+00 2.2349296002182828e-01 -2.0099750988823651e+01 -1.0319068577068475e+00 7.0694469914509239e-01 1.3128313429732537e+00 -3.2751577283486294e-02 5.8094699876999811e-03 5.3102206712595490e-01 
2 1 4.0042301533086793e+00 2.6926618132212254e-01 -1.9283198480347394e+01 -8.9384900783015331e-01 4.4876792374382640e-01 -6.2853241671208837e-01 4.9480176815073218e-02 1.8057426418546674e-01 2.8617968496869617e-01 
59 1 5.3142956433818229e+00 1.0401967015531646e+00 -2.0274471182531194e+01 1.2436241092311575e+00 -4.4569475366516276e-01 3.2892148760515133e-01 -1.7320619244140206e-01 2.1484263231226791e-02 1.4850688111380272e-01 
210 1 4.0129108478167854e+00 2.1451389967478676e+00 -1.9315707056171622e+01 1.3426302048038741e+00 5.5304630453393189e-01 1.3015393007419340e+00 -2.5065538710712898e-01 -1.1975935008120406e-01 2.7820493986023220e-01 
492 1 4.2579168590756566e+00 1.7693352804107569e+00 -2.0311449312513179e+01 -4.3244132665421958e-01 -1.4267475486519410e+00 -1.4689442801175387e+00 -1.0619932938081203e-01 -1.0535554149815468e-01 2.7008679066797397e-01 
245 1 5.1405089324255986e+00 1.9414853170809439e+00 -1.9708135204408105e+01 3.2372722793647951e-01 -2.5173287434032060e-01 -1.4485447057598773e+00 -8.5738108344319025e-02 -1.6157977339295862e-01 3.3491542765201515e-01 
172 1 7.2784649337148659e+00 1.8368287794526730e+00 -1.9435433250018566e+01 -8.4570682201565950e-01 -3.8769609276858960e-03 -5.3263997649934103e-01 6.5865788316780789e-03 2.7985548460861720e-01 8.3431878187912797e-02 
634 1 6.7062432288741567e+00 9.3200505713524862e-01 -1.9132905216375793e+01 -6.1817929186532139e-01 1.2047615376056009e+00 5.2891899287989919e-01 2.4979140370884367e-01 9.9248071701360019e-02 1.5240063578046772e-01 
352 1 6.5745984721918838e+00 2.5072462035104603e+00 -1.8871602797562517e+01 -1.3096252954962877e+00 5.9007017485881874e-01 1.0339622263162676e+00 -4.2929112636196592e-01 3.5433196311727394e-01 2.8900976207157619e-01 
840 1 5.5777721846677251e+00 2.0235016763053646e+00 -1.8738042561306859e+01 -1.3934886140649749e+00 -1.7592204590864133e-01 1.3445273990535858e+00 -2.5165486619209846e-03 2.1253206872199154e-01 -1.2917976840788437e-01 
250 1 5.8211687055445376e+00 3.2706525671465596e+00 -1.8884076112895670e+01 -3.3301180308923999e-04 1.1164334312954143e+00 7.1254392488555263e-01 1.0397026786294936e-01 3.6212779235644438e-01 -7.9488912589681271e-02 
382 1 4.5854350988792625e+00 1.1315502325365105e+00 -1.9384611401683294e+01 5.3302502935856411e-01 1.4497393513675076e+00 -1.6474804662823309e-01 5.7979527370451714e-02 1.9261712079191096e-01 1.1716273941227880e-01 
658 1 5.6180117304720882e+00 9.2200604317426538e-01 -1.9229002606568336e+01 -7.5944681450389557e-03 -1.0975750889976454e+00 1.2493336642811286e+00 1.5218353389263917e-01 -8.7295171939619040e-02 2.8702139756847922e-01 
257 1 3.8152604109459984e+00 1.2570075717774953e+00 -1.8667975041336025e+01 -3.7716787146156033e-02 1.1804179977958862e+00 5.6022469491078342e-01 1.3868409266487053e-01 5.6355437546682728e-02 2.6740666944861835e-01 
64 1 4.5318846587367574e+00 2.0321377014060666e+00 -1.8379084559510510e+01 1.0889833410253573e+00 -1.2433975357547757e+00 -3.9478441200522668e-01 -5.1941199149926350e-02 3.5667195155303449e-02 3.6171853889783417e-01 
700 1 4.8768594517370536e+00 2.7762868311970839e+00 -1.9090859957511174e+01 -5.0180067318926225e-01 -1.0057238039844554e+00 -1.0962036989319557e+00 -6.6444203797795158e-03 -1.2689030216919167e-01 3.3314399864818384e-01 
362 1 3.9862882703310976e+00 3.3589732373139616e+00 -1.9289841705701100e+01 7.7300964158653418e-01 -1.3300300122316482e+00 -9.3936453462171299e-01 -2.5543632950675005e-01 8.6128269247623665e-02 4.4452269112337955e-01 
641 1 5.0032969698979786e+00 1.1168007915235598e+00 -1.8365047881031678e+01 -5.8748520394102599e-01 -2.3150795626839152e-01 -5.5755236322489798e-01 9.5576794029046647e-02 1.3638285605548375e-01 2.7988005291878160e-01 
701 1 6.1376085493976094e+00 1.1793620290122300e-01 -1.8688628131070608e+01 -1.4439738237787887e+00 -1.1078274750304722e+00 1.3747500230675973e+00 -7.8053861415446249e-02 3.0316332977554439e-01 6.1503109488148822e-01 
17 1 6.1255635164916047e+00 1.0759872760886141e-01 -1.9781857023465406e+01 -1.3591264256728011e+00 -1.3384038687367483e+00 -1.3908236327865344e+00 1.9384520999429022e-01 -2.5814215724265510e-01 4.5383146568151922e-01 
11 1 5.0087384387775122e+00 1.3275990515750968e-01 -1.9756468500736798e+01 -9.5152562464623658e-01 1.4028371119488259e+00 6.6901694826613634e-01 6.4465899611109295e-02 -8.4589513715254173e-03 3.7110521845782657e-01 
339 1 4.9880650541889002e+00 1.0654500769389977e-01 -1.8702771337040616e+01 8.5750690237189720e-01 1.3226323452669875e+00 1.6329397179011166e-02 1.8843820757544624e-01 1.3312007047155294e-01 4.3901101746128579e-01 
878 1 6.2023438855918993e+00 1.7741383729954545e+00 -1.9615213731269325e+01 -8.7570466513742151e-01 1.4435166638701693e+00 4.6650357289937605e-01 -1.2417539584972012e-01 1.5819950823812354e-01 1.4052305551218289e-01 
391 1 6.7231494825852831e+00 3.2951453894697873e+00 -1.9777933868147350e+01 1.3761003711800452e+00 -9.8832170967692035e-01 -8.8576130354907867e-01 1.8402972163379561e-01 -5.3488320056407513e-03 1.2231162934892859e-01 
924 1 4.7340290772602671e+00 2.8179201563817324e+00 -2.0172439267708633e+01 6.4910021519735039e-01 -1.5210553640595585e-02 -1.0430708919868368e+00 5.5782865326835829e-01 1.5480593160908479e-01 9.3946093239702683e-02 
930 1 3.6804195317931381e+00 2.7443533706942111e+00 -2.0194856644785833e+01 -1.3421023291480139e+00 1.2870264909419495e+00 7.3517685055791426e-01 -5.7198386168730886e-01 6.6564562910293668e-02 4.9864768964756467e-01 
342 1 5.7735181860698015e+00 2.7932771542661943e+00 -1.9822502553296161e+01 2.4092775684732867e-01 -6.7363390441671189e-01 9.7017224345663600e-01 -3.2995401680878478e-01 -1.9342368576499052e-02 3.9118847677710811e-01 
124 1 4.2548686615884552e+00 6.5351053388002089e-01 -2.0329785955465624e+01 -1.2330170053977996e+00 -7.4991288415231439e-01 -9.2312212745678579e-01 -8.0987789114127878e-02 -6.6890783762105041e-02 2.2894530388775816e-01 
335 1 7.5267894717745154e+00 2.8722424594731373e+00 -1.9196343543182905e+01 -1.1799182336457235e+00 2.6814622733977816e-01 3.1213952028538205e-01 5.9885293978360576e-01 2.1636201619488485e-01 3.3218215289883182e-02 
518 1 7.7085503841868741e+00 7.6243288679339383e-01 -1.9525681180615535e+01 -2.9953873607744047e-01 -6.4940038832244773e-01 -9.1030204414919469e-01 2.8915389696669042e-01 3.7636162634294074e-01 4.2752839448364527e-01 
483 1 1.0533443963747416e+01 3.1775790390329042e+00 -1.8675343119902319e+01 7.1876746944629444e-01 -1.1065604833948903e+00 -7.1224608822038560e-01 -2.7819708284390282e-01 -1.6007041985567433e-01 6.3216939475552247e-01 
752 1 8.3213947125065477e+00 2.2601164412751640e+00 -1.9640774111465586e+01 -3.6179529566074183e-02 7.1311604940967410e-01 -1.8124514749362663e-01 6.1025418389947468e-02 -1.8096378118212661e-01 4.5731262903595132e-01 
660 1 9.3306498199952355e+00 2.5989197452705080e+00 -1.9166295864728013e+01 -1.1265196628521768e+00 4.7959669620002854e-01 1.9884101717013336e-01 -1.6851363469072739e-01 -1.1929214826425430e-01 2.1027131801707977e-01 
125 1 8.5543578963864970e+00 3.3454438445746528e+00 -1.9492071745172979e+01 -5.1424052263676334e-01 3.4964730644250352e-01 -6.2937460128671041e-01 -5.1774053817085240e-02 -1.6222248846115137e-01 2.6751152766596714e-01 
723 1 8.1081444769263165e+00 1.5202077148353330e+00 -1.8825265155337370e+01 -1.1410773783174464e+00 1.3119804417588186e+00 -7.2761331948333319e-01 1.4106896989561890e-01 1.5410759268466695e-01 3.6556376818277181e-01 
544 1 9.0780770931282522e+00 1.8155689212018709e+00 -1.8354213503002235e+01 1.1181232953141593e+00 4.2666462176819742e-01 -9.4020179928179348e-01 -6.1613249956411438e-02 -1.8419262992834623e-01 1.6556801530005660e-01 
860 1 8.3791782785318549e+00 2.6087637098079450e+00 -1.8603562259819274e+01 -6.6825976613633753e-01 1.2299135629570306e+00 -5.2749804111736753e-01 -4.2127782769876126e-01 -1.9008360294211507e-01 4.6435559312128055e-01 
107 1 7.9949374685192653e+00 3.6198375251822692e+00 -1.8610607879211624e+01 2.3001588178846094e-01 5.8412658947521477e-02 5.4728525839806003e-02 4.2663239552054748e-02 1.0716555438040894e-01 3.8355369458322769e-01 
377 1 9.0568785223234176e+00 3.4398633752510901e+00 -1.8523648401330664e+01 9.2845454974978081e-01 1.2921907694047046e+00 -1.4876201532542468e-01 -2.1725716545383657e-02 3.9379211073361386e-01 -2.0350927379892303e-01 
456 1 7.4952680526346276e+00 6.1530347341620562e-01 -1.8454144408237326e+01 -9.3744087016068289e-01 1.3893948792487636e+00 -2.0933943553065357e-01 -1.6320325852452477e-01 6.3411982146390766e-01 3.6060254250830243e-01 
242 1 7.7475863752204965e+00 3.1098784129559749e+00 -2.0220400257365185e+01 1.2796818403544246e+00 5.8482000816179636e-01 4.7437753886762907e-01 2.5531459785440369e-01 -1.4943990509983598e-02 2.8636127566358999e-01 
269 1 1.0667967559446774e+00 3.8847351679849549e+00 -1.9839616441362313e+01 8.5143469848782447e-02 -2.3179807199258343e-01 4.1180379290692865e-01 -8.3447427139433872e-02 2.4203109284484120e-01 3.3700384602979649e-01 
937 1 8.2467307416448410e-01 4.0327354005235749e+00 -1.8777140895299116e+01 1.0909252591947654e+00 -7.5490009196463559e-01 1.4177593958199048e-02 6.8562463926729045e-03 -3.1567579939009416e-01 4.7424509966272177e-01 
454 1 6.2232766619720148e-01 4.8398567985528169e+00 -1.9560604196083641e+01 1.3307002830632730e+00 -1.2118898804185310e+00 1.5191132149807482e-01 -4.6144607606256338e-01 1.8666227966091831e-01 4.5812050787885972e-01 
792 1 1.6341587879320167e+00 5.0579860130924530e+00 -2.0001434650782713e+01 -5.1064551590340046e-01 -6.0505141851212618e-01 -8.1688585204449182e-01 -4.6829554953942731e-01 -7.0103267612662412e-01 3.8535439139428362e-01 
687 1 3.0256838356447737e+00 5.6534918991585679e+00 -1.9830585504808511e+01 -1.3880607112021073e+00 4.4820881458415118e-01 -1.2574833644345997e+00 5.8732285354680625e-01 -1.9500121160969089e-01 4.6309695694082947e-01 
590 1 2.0234501635483797e+00 6.0361854061828568e+00 -1.9559742519234881e+01 3.3490143447185977e-01 5.0256012172498765e-01 3.5327906176030172e-01 1.8303337660193186e-01 -9.3732768394534094e-01 -9.3744079976282257e-02 
846 1 2.8778380461037920e+00 6.6023609129560148e+00 -1.9166220338326909e+01 -1.1616815585153073e+00 -1.0793931868171751e-01 1.1679874733427762e+00 4.1673247455563406e-01 -2.2585693733705436e-01 3.1008771849060651e-01 
361 1 1.7596883946823019e+00 4.3745023885766807e+00 -1.9163178960787800e+01 1.1145728087037499e+00 -7.9305251310989611e-01 -1.1498055717543239e+00 -3.5512316192390647e-03 4.2341450563308902e-01 3.8474467321270928e-01 
883 1 1.4220569808851118e+00 5.3791831779903951e+00 -1.8967254797167744e+01 -6.8000026912563727e-01 -2.7412723519388366e-01 -8.0670951713879424e-01 1.0494101374218134e-02 -3.5624855012010082e-01 -5.0783125844259119e-03 
275 1 2.6138365529744494e+00 4.6264144617486052e+00 -1.9779182945814259e+01 -1.0193402418637612e+00 -1.4405291669921636e+00 7.1664158084643370e-01 -3.7906311314132873e-01 1.4106189067111424e-01 -1.3642576743646395e-01 
777 1 3.2553486222909815e+00 4.2045448779879315e+00 -1.9020735723743911e+01 1.0951516862632977e+00 1.3468605733608852e-01 -1.0684483691898155e+00 -1.7330678703254415e-01 -1.3254954479370687e-01 1.5670994900063939e-01 
194 1 4.9888647164497268e-01 5.0377976517662217e+00 -1.8528455470474704e+01 9.6650302528148346e-01 7.0916000805119639e-01 5.5087576578247255e-01 -2.6985952113497191e-01 -1.1000777291872321e-01 3.6743377402949084e-02 
663 1 9.8707093302546178e-01 6.3684270613589344e+00 -1.8772770181302246e+01 1.3847365891030465e+00 9.4998017283620573e-01 1.2357596309240972e-01 3.2358246341141594e-01 4.1263907035049296e-01 3.0552388501028416e-01 
519 1 2.5105696752909683e+00 5.2230295840433243e+00 -1.8892370758454469e+01 -1.3243522791583078e+00 -1.4224366623699620e+00 8.4014786957419496e-01 2.3356054036275241e-02 -2.3466959586281211e-01 -3.8565783625129683e-02 
503 1 3.1549202873031366e+00 5.9396949424122365e+00 -1.8360142371102942e+01 3.1839755596485730e-01 7.7510285432899229e-01 1.1620435238419493e+00 2.4254505789628647e-01 -1.1440821728091713e-01 -8.7910575900161658e-02 
744 1 2.0694209461977398e+00 6.2051851966540434e+00 -1.8469603091016346e+01 7.7595801503735717e-01 -1.4620320515795808e+00 -1.1944750233008006e+00 -9.7240719435578896e-02 5.0685866221918452e-01 -1.9988759377394555e-01 
861 1 3.6650383149698116e+00 4.6436096754615495e+00 -1.9967398695881680e+01 -3.2438477949064665e-01 -2.9567605123243679e-01 -5.6713045421500397e-01 -4.8622708571546720e-02 1.6897937029259233e-01 4.7604266998364897e-01 
390 1 3.6251580463868618e+00 5.2396708534741405e+00 -1.9047258912749147e+01 1.0707422998960892e+00 -9.4069133243292180e-01 -1.1723761335970784e+00 3.0117772822125527e-01 4.6536978394129652e-01 -3.9932524522149813e-02 
386 1 1.0333003754908438e-02 4.0810802001595272e+00 -2.0113091343623239e+01 -2.3061883930337165e-01 3.1174043326445444e-01 -5.8909864839636883e-01 -1.8254538906182022e-01 -3.0908083447689572e-01 4.2937134015697831e-01 
847 1 2.0806485547154576e+00 3.7675320278890991e+00 -2.0162947518739429e+01 -2.8861480552673091e-01 -1.1788303003046907e+00 4.7781669522926568e-01 -1.6243748831429500e-01 -1.0490350065034189e-01 4.4520027313239779e-01 
898 1 6.9006063757640845e+00 3.6966157579951946e+00 -1.8800431949894545e+01 1.0689344796795652e+00 8.2459551789738350e-01 2.5553718413662604e-02 -1.2826614336706499e-01 -1.3399197071939045e-01 -1.1811498581001202e-01 
948 1 4.2085816434410717e+00 3.7736131902621022e+00 -2.0282875304520648e+01 1.4396903768659663e+00 9.9597214912834608e-01 -1.3956535680111690e+00 -2.1216000168056842e-01 2.2317446029067829e-02 4.4419817092554825e-01 
61 1 6.8044781539198862e+00 4.7590349100704596e+00 -1.9149825908198910e+01 1.2103364778088457e+00 1.2408726637516065e+00 -4.6582166443248479e-01 1.2544963172203952e-01 7.7153000445925088e-02 2.9388854747323384e-01 
233 1 6.0377055736110377e+00 4.1169081233035270e+00 -1.9488805008041677e+01 -1.3254447193030172e+00 6.7558078969373259e-01 2.5940713041823638e-01 -4.7471593432125542e-01 -2.9493951926679257e-01 -2.1881251484647607e-01 
876 1 4.8387090142001989e+00 4.6840008241462963e+00 -1.9988066525148245e+01 -4.6335645415815735e-01 -7.8282470351324873e-01 1.2343874729080617e+00 4.0128088863726125e-01 5.1102347654759750e-01 3.0063443114993572e-02 
153 1 5.7838932172167850e+00 5.1544746671143820e+00 -1.9712537937766083e+01 1.8637700875583235e-01 2.0893074427445993e-01 -1.2161918118905599e+00 2.1326419246993517e-01 6.3747437241266058e-01 2.6366644652402393e-01 
705 1 4.8910636110615338e+00 6.3081120251136973e+00 -1.9922458321374140e+01 -9.2753866091667492e-01 1.2238883634152300e+00 5.0026808081845342e-01 -3.3997384592311197e-01 -6.0039435282915044e-01 -1.3656107913539097e+00 
760 1 5.0573599279509374e+00 3.7007654412129356e+00 -1.9600925767091006e+01 1.3859528191971169e+00 9.3250039967877763e-01 -1.3924148624415724e+00 2.6676523573967142e-01 -3.7681224662742768e-01 3.6210858935376322e-01 
165 1 4.1389650038473356e+00 5.5600495956241414e+00 -2.0216313899329030e+01 -1.7967538888527207e-01 1.7730068037564820e-01 -8.9754269014358534e-01 3.3207928815234100e-01 1.2174229514697238e-01 9.3165436757406517e-02 
407 1 4.6605049378799217e+00 5.4728375552825614e+00 -1.9240729675686406e+01 -1.9440745577849883e-01 1.0020255425704618e+00 9.7310075896193382e-01 -1.1104520105290083e-01 -5.2126756133880203e-01 -2.5299949860506415e-01 
452 1 3.8879782846687232e+00 6.2373634211293902e+00 -1.9426943027900375e+01 -2.1799680603284105e-01 -9.0433272982208268e-01 -9.3044541276626380e-01 -2.4119474132057922e-01 2.9792317705606169e-01 3.8699100583087365e-01 
495 1 5.2873118736035742e+00 4.7033168986833767e+00 -1.8874917719606483e+01 3.8888037553295590e-01 -1.2223685879641493e+00 -6.0379241889256108e-01 -2.4361787503336649e-01 2.5430858739675144e-01 3.5853822346170244e-01 
552 1 5.5738715727969508e+00 6.0161708141727841e+00 -1.9094051377540097e+01 -9.8881162774569309e-01 1.8741421049674259e-01 -4.3404479110034205e-01 2.0757486199086247e-01 3.6077895572639918e-01 3.1986181822815246e-01 
174 1 6.6059543246876054e+00 5.8207603966632400e+00 -1.9489230273867218e+01 9.4233884936037771e-01 8.3236901961899323e-01 -8.4515333060018050e-01 -3.0226372226632492e-01 8.4981499087783491e-02 7.1243273051263822e-02 
945 1 4.8267110797120871e+00 6.7360809415897540e+00 -1.8944746142122106e+01 -1.3643577170462344e+00 1.3419145736884854e+00 -3.2313538351568694e-01 5.2066296815261592e-01 -9.5837942644722424e-02 1.1078704345517087e+00 
178 1 7.1672943140601912e+00 6.7382838625200812e+00 -1.9231793461730373e+01 -9.1098137922110034e-01 -1.0737725451684552e+00 8.9350521651948211e-01 -3.4604838492984125e-01 -1.3190092093797784e-01 4.2931914393216514e-01 
597 1 4.9231890004987386e+00 3.7327296770826530e+00 -1.8535277755130529e+01 2.2767084909415791e-01 -1.3598994721228386e+00 -2.5689951992094590e-01 -1.6851798333858165e-01 -2.3025986342652717e-02 5.6503613937723041e-01 
87 1 4.3011712246375327e+00 4.3778202298093953e+00 -1.9141340068704256e+01 5.6651486314415123e-01 2.3892148720419912e-01 1.3974720229849935e-01 -1.4449678800802307e-01 9.5365401186883816e-02 3.1096971900526538e-01 
693 1 6.1507311610170321e+00 5.3210673147275553e+00 -1.8524317093807973e+01 -2.2073126867646106e-01 -9.9797320124361891e-02 6.4527561007920164e-01 -7.0610920347701644e-01 4.1203192144599127e-01 2.8108600608169065e-01 
779 1 7.1875432289422507e+00 5.6602272596100942e+00 -1.8611745952183806e+01 -1.4765421151451880e-01 5.8676454892465402e-01 1.0069529107694304e+00 3.3370523819306497e-01 -2.5412324491050109e-01 5.1395142161217611e-01 
457 1 4.2357493864255416e+00 6.0335387328921248e+00 -1.8419613365787605e+01 1.4119785288249829e+00 -5.3232831818216114e-02 -1.9741200575534606e-02 -2.8301929426972516e-01 -9.1033725220743808e-02 8.7186535902239648e-01 
51 1 6.0737740554532582e+00 4.2246833808021726e+00 -1.8359225995824890e+01 9.7282737059809332e-01 -1.1361942092894806e+00 1.0095346410286588e+00 9.6830511911267916e-02 9.6394117741225513e-03 -3.8601908706825845e-03 
83 1 6.3987033601624690e+00 6.4501509349871258e+00 -1.8582330420214497e+01 1.1558635242498803e+00 5.0826445437549717e-01 -2.2196576947336949e-01 2.9865513245766856e-01 -4.8834356160613719e-02 -1.0297082011856490e-01 
582 1 5.3516164800976451e+00 7.2861145290943670e+00 -1.9746907981661334e+01 -1.1794006708847216e+00 1.9882685255856117e-01 1.4049685315016440e+00 9.9665285760053812e-01 4.1397157533234991e-01 4.1036428956557802e-01 
19 1 4.2448136915325536e+00 7.2521056278587155e+00 -1.9718145797349681e+01 -9.8683798531405564e-01 1.2091013295763609e+00 4.0116348760393872e-01 5.3986833049837188e-02 1.6138803630063905e-01 9.3243970721055766e-02 
496 1 3.8090417753048498e+00 7.0075208939591187e+00 -1.8699884363680930e+01 4.4619156450562852e-01 4.4981315856741066e-01 -5.9726413461213512e-01 -2.4169152908873429e-01 1.8597741903807524e-01 -1.9692419020064003e-01 
279 1 5.1829550577086865e+00 5.5008163686848022e+00 -2.0604458990889583e+01 -1.3696426470564327e+00 1.9806288169591085e-01 2.5557250819552840e-01 -9.2383963139162584e-02 -4.0137610236441817e-01 1.0542550261459412e-01 
599 1 4.2816895340433625e+00 4.7131106093276101e+00 -2.0918363362177420e+01 2.4693890843397132e-01 9.8516155762139201e-01 1.0386656523690647e+00 -2.9940216091882926e-01 7.9091062061479922e-02 8.2609599800806244e-01 
545 1 1.0792642984245916e+01 4.1642405331977113e+00 -1.9062936068510279e+01 -1.1510593868060515e+00 1.3630105364884040e-01 -2.2919543758739611e-01 7.2372223318468376e-02 7.2986765395386399e-02 2.5643947041880566e-01 
121 1 1.0513480434121131e+01 4.9957310049229333e+00 -1.9649989018970381e+01 7.5734947330400171e-01 1.4320881977844577e+00 1.2842014470446841e+00 -5.0127655182688302e-01 -1.7291965102382659e-01 5.8181467794603614e-01 
338 1 9.7235175784440013e+00 3.6985258148612652e+00 -1.9355634109336204e+01 -9.9991833278137143e-01 5.6761891992296343e-01 7.1957857384763169e-01 1.3745614186696292e-01 3.0755109507165102e-01 1.9518678195384220e-01 
842 1 7.6005308530161111e+00 4.0284270777154321e+00 -1.9551995014825216e+01 -3.4255152514693726e-01 1.2557141664202887e+00 5.4874055145193568e-01 -1.4428482828498568e-01 1.0480311331314880e-01 1.7579149994085128e-01 
158 1 9.1630776384473371e+00 6.1713026512552034e+00 -1.8579512767814375e+01 8.5536748672014606e-01 4.3746028204902859e-01 -7.0280457079161462e-01 2.9456318508040535e-02 1.8068049618367907e-01 2.2705158201366324e-01 
180 1 9.8678461701289706e+00 5.7992351232936104e+00 -1.9340487426819529e+01 -3.2733197570050754e-01 -1.4388812303313558e-01 -9.5446060033752922e-01 -7.9955109131892979e-02 -2.4578259458789969e-01 4.8052891300191680e-01 
625 1 1.1007130246735121e+01 5.8182509472142376e+00 -1.9102149509990713e+01 -1.2794715761443272e+00 -1.1601772153118539e+00 1.2550005742787629e+00 3.4779381782774454e-02 -4.4020047986220989e-01 1.9914007698234068e-01 
240 1 8.9531494064078050e+00 6.6208108465600963e+00 -1.9582495231741753e+01 1.0298978820780617e-01 -1.3232787421813186e+00 -1.4547258849657638e+00 -1.7023120775433676e-01 -9.7208178615532104e-02 3.9732070686657343e-02 
657 1 9.8937992227931524e+00 6.8402320109509143e+00 -1.9070866267141099e+01 -1.6944608494113750e-01 -3.3605634305730497e-01 -1.1802837700178219e+00 1.2151429697850294e-01 6.8514100804111422e-01 3.2726720218741573e-01 
539 1 8.8079525085426127e+00 5.5179729009121736e+00 -1.9383138356087350e+01 -7.7748555582840917e-01 9.0604185325390929e-01 1.0866270207766286e+00 4.6239351171626107e-02 3.4076317024189617e-01 2.7295103189693065e-01 
324 1 8.5564455999679758e+00 4.4184614670818751e+00 -1.9150322156399138e+01 1.2695873080444180e+00 4.4061832007375801e-01 -2.3363968281434855e-01 -3.1895936916704955e-02 -9.8607719729247839e-02 4.9868097164873025e-02 
310 1 9.5536478212909444e+00 4.7979146463690938e+00 -1.9001559308071517e+01 7.5083649859997292e-01 1.0714830077736980e-01 8.0830219229194478e-01 -1.6072170882893763e-01 2.2364731113505806e-01 4.2602335374805173e-01 
939 1 7.7619418868249515e+00 5.2449008135069697e+00 -1.9428635048108315e+01 -5.8110015518090596e-01 -1.0566193985367132e+00 -1.5745040884006403e-01 8.1978200921091662e-02 1.8407710656602333e-04 2.2397905511776628e-01 
237 1 8.0921706648317926e+00 6.2734564991522923e+00 -1.8868886036538438e+01 1.5640319087650426e-01 -8.6254894765376944e-01 -1.1015442519015788e-01 1.0904247838945899e-01 -4.2848625423483916e-01 6.6292632058189083e-01 
527 1 8.0736132297324712e+00 7.2700720794281715e+00 -1.9320451006507678e+01 -5.8881817142646142e-01 7.4663204652503790e-01 -9.5233592809773571e-01 8.7475514412183153e-02 9.0264641519212208e-01 3.8885107087428683e-01 
487 1 7.6737017345496259e+00 4.6159956984988177e+00 -1.8551687404906424e+01 1.1914841110990977e+00 3.7026534887997259e-02 1.0600611398922227e-01 5.0184115612324254e-01 5.3214742166386324e-02 4.5038877176527098e-01 
323 1 8.4309733876845101e+00 5.3567265925469689e+00 -1.8373605982861964e+01 4.7966093471305660e-01 -1.1049360637105521e+00 2.8538544963275647e-01 -9.9820864009827523e-02 1.0293517072260432e-01 -3.4790670141264489e-02 
259 1 1.0450260398444696e+01 5.0394756626873303e+00 -1.8459405260832934e+01 -1.0428344438289148e+00 1.1749354233183462e+00 -9.8277199338353771e-01 2.6245853634999278e-01 -1.8547183778925322e-01 2.3542122091153184e-01 
575 1 1.0219029525772999e+01 6.1140684394872089e+00 -1.8367868460540436e+01 -9.1758111590355562e-01 -9.3425544727781895e-01 -1.1430802853854394e+00 1.6740520577207049e-01 -2.0724351673003731e-02 1.0220639239628512e-02 
102 1 8.9599199090241495e+00 7.2298503511367951e+00 -1.8681736633892893e+01 -8.8743533918541651e-01 1.0467088223322410e-01 8.7646649224019851e-02 -2.2876114599789715e-01 5.0732911330693320e-01 1.6991404078166290e+00 
593 1 9.9674368708677896e+00 4.0399983003026954e+00 -1.8361566109693062e+01 -4.1731195114354852e-01 -1.4192376100866939e+00 -9.2402616549643568e-01 -1.6223414759680221e-01 2.0614007952524604e-02 2.4696699301313038e-01 
79 1 1.0905996309064481e+01 6.8663637715838171e+00 -1.8718138873522502e+01 -6.7873729280311046e-02 -4.6165478693916101e-02 -1.0680254593241172e+00 -3.2798163744872058e-02 -5.6584386234259798e-01 3.2724088856008131e-02 
4 1 3.8223855831729475e-01 1.0607566515937378e+01 -1.9150577313392159e+01 1.1371885884031664e-01 7.1761183329327027e-01 -6.0991014004718347e-01 1.0513426285755889e-01 8.0194858124361001e-02 1.7560216483479141e-01 
725 1 6.0731214838880732e-01 9.6707709452603314e+00 -1.9659322462221056e+01 6.8320590343390136e-02 5.2462601329649150e-01 3.6191782195421428e-02 8.1239619953673792e-02 4.5507021340917064e-01 2.3642047115159215e-01 
736 1 3.3347347258965359e+00 1.0375778267711215e+01 -1.9449363273163915e+01 1.2709140041699070e+00 -6.4292442934060312e-01 -2.0748538989299598e-01 7.2449138227272433e-02 4.7634877414909405e-02 4.4480135685073263e-01 
265 1 3.6465798821859781e+00 7.9709564905548689e+00 -1.9131573007634852e+01 1.3758596206398768e+00 8.1071509433564226e-01 5.5052022131925538e-01 -1.4133350537153075e-01 -6.6619377782584299e-01 -4.5392056289869320e-01 
549 1 2.2536984383666301e+00 1.0033010052977833e+01 -1.9595033328816069e+01 1.0143296901035297e+00 7.9888493594099586e-01 4.6230659182559231e-01 1.9381412527151418e-01 2.2829691980006367e-02 2.2777504111521646e-01 
123 1 4.6501818234084680e-01 8.6801233448188810e+00 -1.9186968585255396e+01 1.1020047679227589e+00 1.3304724216662240e+00 2.6454295503498404e-01 -3.7391936172150420e-02 2.5660919941425697e-01 1.5808059297617394e-01 
902 1 1.4832951382612527e+00 1.0616935266214815e+01 -1.8979328159296646e+01 -1.4094563783987726e+00 3.3909489680779187e-01 2.9887621324087704e-01 1.4615857042377500e-01 -3.3299353188364217e-02 2.8987276476092827e-01 
439 1 2.5573530582796624e+00 1.0592660563393052e+01 -1.8694462394139482e+01 -3.3499993038930156e-02 -1.0145625998990619e+00 -5.9390275372941836e-01 -3.3188425589932416e-02 -1.6746550553789000e-01 3.7692865450567237e-01 
748 1 2.9175719084741751e+00 9.5834767281004822e+00 -1.8828455294686638e+01 -1.9652168391754826e-01 5.4018000533201271e-01 1.3349005212926459e+00 7.7442461659841588e-01 1.7581278135566172e-01 3.7655744030960736e-01 
781 1 3.2182285494304281e+00 8.6451975568647921e+00 -1.8425686005135468e+01 -2.8334945626876176e-02 1.0370878313994414e+00 -1.1345528772158538e-01 -4.1432499625469760e-01 -4.1121436531504751e-01 4.1447157783368727e-01 
780 1 1.8937797288385936e+00 9.6855605432008165e+00 -1.8604699350962981e+01 -4.0819356934674339e-01 -1.4520419949246516e-01 3.0756687821813600e-01 -3.5617593507096335e-01 -3.2635336555626027e-01 1.6691857192461204e-01 
244 1 8.2704485883697532e-01 9.7608071748654925e+00 -1.8568127118734129e+01 -1.3014704493612639e+00 2.8328754946451390e-01 5.2043620143711711e-01 1.2777002902665013e-01 2.8053706688949387e-01 5.1714043984493285e-01 
15 1 3.6113710027416954e+00 1.0715841515353210e+01 -1.8463328584638234e+01 1.0477867285417577e+00 -9.6312433128754427e-01 -1.1799298287798687e+00 3.6158609643613865e-02 -1.0135390076323805e-01 6.3309361667198982e-01 