ITEM: TIMESTEP
217
ITEM: NUMBER OF ATOMS
500
ITEM: BOX BOUNDS pp pp pp
0 5.505
0 5.505
-44.04 44.04
ITEM: ATOMS id type x y z vx vy vz fx fy fz 
8 1 1.0015366765872376e+00 5.2138966651420482e+00 -9.0824310854434351e+00 -5.2898118698091134e-01 -1.4380530040659913e+00 -1.4114092059878565e+00 -1.3318112135034127e-01 6.5321565177372892e-02 1.8279470959568683e-01 
492 1 2.1505634743229796e+00 2.0669328383432850e-01 -8.9089150600566658e+00 -4.6391426626028559e-01 -1.4148539760081646e+00 -1.4330108328054822e+00 -1.1340799066412645e-01 2.1566953110628015e-01 9.0971991863080900e-02 
240 1 3.0832218160198792e+00 4.2550704079097873e-01 -8.4224189848495552e+00 7.3187884836264275e-02 -1.3110622519484145e+00 -1.4187480632181619e+00 2.0998850220849772e-02 4.0133209252978203e-01 2.4520823274036424e-03 
245 1 2.6439459880497642e+00 2.4684307239301120e+00 -8.9381742692195889e+00 2.9461422786148539e-01 -2.3617217806033544e-01 -1.4125475930630973e+00 -1.6211860919031437e-01 2.3153756968951877e-01 2.9872801937916948e-01 
341 1 5.4008326768668180e+00 3.9655079162898472e+00 -8.3345124833611681e+00 1.2436087056604508e+00 5.9293273648555811e-01 -1.4296880942224919e+00 -4.0132830429526312e-02 1.6771741635223220e-01 2.1405363921933976e-01 
17 1 3.8780567323274590e-01 2.9302481923819929e-01 -8.3223039155865379e+00 -1.3934914728450338e+00 -1.3262345827731223e+00 -1.3546463773939774e+00 -2.4621503932620387e-02 2.8957212399661869e-02 3.4880621570129222e-01 
49 1 3.9617623425926212e+00 8.8597966451033705e-01 -8.9533901874027304e+00 7.0901093541105065e-01 -1.3965345475747653e+00 -1.3760083590076879e+00 -7.6135180620979223e-02 2.1935542695096966e-01 1.7677866922913321e-01 
463 1 2.6019747842061585e+00 1.2947905109456128e+00 -8.8794135025397694e+00 -3.1072430522816263e-01 -8.6013318695503016e-01 -1.3232543232922549e+00 -2.8860310014663959e-01 1.1396700158358565e-01 -9.2266288776386304e-02 
471 1 1.6539743561215527e+00 1.7252062495487699e+00 -8.5028736833754053e+00 -8.4465365299443362e-01 -4.1078468867781992e-01 -1.4062627072787959e+00 -1.4405833621867728e-01 1.7740588012763941e-01 3.3025524547311347e-01 
431 1 3.5088708010200742e+00 1.7662057433968545e+00 -8.5079540429336600e+00 7.3540187304875049e-01 -5.4387721512324261e-01 -1.3389012427081728e+00 -4.8646675218511426e-01 -3.2279489757326890e-02 1.8395391425906127e-01 
484 1 6.9597781522250605e-03 2.8377367397596798e+00 -8.3679904971533929e+00 1.3829576134682184e+00 1.3224212952632766e-01 -1.4073476774031346e+00 3.0459330477490409e-01 -1.0169554539005521e-01 5.5530501265503929e-01 
76 1 1.9134800199269097e+00 3.6892537709883277e+00 -9.0122472935300966e+00 -3.7709792140336051e-01 6.0933299095380955e-01 -1.3785858500998023e+00 -5.5754885190591359e-02 1.3369623830708074e-01 3.2704339395967186e-01 
332 1 8.3551331574606180e-01 4.5045024109231768e+00 -8.2313782885570834e+00 -5.7576235650750862e-01 9.6152404344011400e-01 -1.3814467662609260e+00 -3.0590389928982109e-02 1.3612432081749226e-01 2.0804681704896053e-01 
42 1 1.8416047285933601e+00 4.6771734486934555e+00 -8.5746203939850414e+00 -2.7588032180396327e-01 1.3370904134378976e+00 -1.3747994255700648e+00 2.7236931571191378e-02 -3.6662264190928419e-02 1.8251071202039132e-01 
68 1 3.0649265114873496e+00 4.4424534373578634e-01 -9.4986900031601831e+00 4.6199169190704959e-03 1.3911647285438413e+00 -1.4017442396630468e+00 -3.6020531408238063e-02 1.3219360986682852e-01 3.6317257121745294e-01 
116 1 3.8351662918297222e+00 5.3182669433094363e+00 -8.9889015933654548e+00 3.7964850230608538e-01 1.1546270076575169e+00 -1.3880961684335222e+00 1.2561000466011354e-01 -1.3409655419113879e-02 2.8497801426076785e-01 
199 1 4.4017372960658747e+00 4.5788931113949545e+00 -8.4550599462826046e+00 8.2638751147203227e-01 1.1907395887155539e+00 -1.3238478470926225e+00 -2.2615980740072505e-01 1.4251268555939434e-01 7.8182536527917168e-01 
311 1 1.2214741053223126e+00 8.0493987726337057e-01 -8.8954888775729231e+00 -1.4813807793538836e+00 -8.6117928654428810e-01 -1.3143283367347138e+00 1.6353925902351463e-02 9.0012355855628487e-02 6.0661127622442114e-02 
367 1 1.6577943225199576e+00 2.7968505459728341e+00 -8.4220936190015081e+00 -3.1121335968723263e-01 -2.8431058893539385e-01 -1.3016171420581815e+00 -2.2658036851039301e-01 1.9394081822149348e-01 2.5988322487329429e-01 
25 1 3.5605278423118678e+00 2.8226811775654954e+00 -8.3050076237610089e+00 3.7799037745918906e-01 -3.2739461930013286e-01 -1.2635354063420596e+00 1.1306914632568510e-01 -6.1500056888004154e-02 2.2914922024383416e-01 
360 1 2.5698787363025009e+00 3.3292989198956486e+00 -8.2288855401126302e+00 1.0764864836238353e-01 3.0895844915059228e-01 -1.2363581526746990e+00 9.9182424360301391e-02 8.5204847414579926e-02 3.9883638469214672e-01 
387 1 8.5344888027605637e-01 3.5080249110750694e+00 -8.6994632666883724e+00 -1.0554943105169119e+00 5.2072364983136188e-01 -1.2880044491317644e+00 8.2415038445536978e-02 1.8861760802211525e-02 4.5951430266086979e-01 
364 1 3.4884609451750208e+00 3.9438478121263700e+00 -8.3283354557102225e+00 4.6965792109234947e-02 6.7405682923531018e-01 -1.2579994486809249e+00 -1.0602748348516473e-01 2.7955149112376143e-01 3.9158924231867592e-01 
414 1 4.4591033167445540e+00 3.4469578679796227e+00 -8.3333599556529609e+00 8.8582609148016200e-01 4.3559910569548410e-01 -1.2641793722796200e+00 -6.3749162401163337e-02 1.6377780561282337e-01 2.8047182305913304e-01 
85 1 2.8952493512906958e+00 4.8910155232160930e+00 -8.7259895579001210e+00 1.9718601258811841e-01 1.1567265257788040e+00 -1.2829386704022334e+00 2.6317263833871778e-02 2.4640352888389228e-01 3.4282070349485055e-01 
465 1 4.8586041252642183e+00 1.3096015131791969e-01 -8.7076363050666181e+00 1.3345250236886341e+00 1.1624816599050063e+00 -1.3053692190256792e+00 -2.8009536583758277e-01 1.2999270438016761e-01 2.9648322039514796e-01 
52 1 9.5659186909746907e-01 2.2221493516539996e+00 -7.8348022511378996e+00 -8.8983466353705154e-01 -4.3520523613361306e-01 -1.3922288549990485e+00 -2.4111002180504948e-01 -9.8859516467211250e-03 3.3653358779641029e-01 
285 1 1.0289567847113692e+00 1.0598474121763932e+00 -7.8436382242303155e+00 -1.1077449405838689e+00 -1.0513136883930458e+00 -1.2554295905321107e+00 -2.3788608987343651e-01 1.1654506978091894e-02 4.1805326481661054e-01 
258 1 2.4308305396586607e+00 5.4118122972585070e+00 -7.7761628296816756e+00 -2.7235460372233483e-01 -9.7369202990306958e-01 -1.3134142716375614e+00 3.3133498468007949e-01 2.7237491991880164e-01 2.8208920439875962e-01 
236 1 4.4610417442926726e+00 1.3560318838242098e+00 -8.0836883405176039e+00 1.1624201212976522e+00 -6.6266644953043696e-01 -1.2826415289709752e+00 -1.9350373578836008e-01 2.0886729290483430e-01 3.4906522677423302e-01 
214 1 2.5555998517746530e+00 2.0336779446625326e+00 -7.9735116450113432e+00 1.2732323345377419e-01 -3.1221683715319365e-01 -1.2360167194209619e+00 -2.0482435076781202e-01 2.8985144589178242e-02 1.4444787610157389e-01 
489 1 5.2349987327577683e+00 4.9709580371699769e+00 -7.8960189750124048e+00 -1.4155076035699901e+00 9.8560073437721640e-01 -1.3111032004379686e+00 2.3484600657517710e-01 1.6532818487825526e-01 3.2702463847576896e-01 
291 1 2.5641532483503142e+00 4.3416953850640052e+00 -7.8749565062930200e+00 -1.8240703330086117e-01 9.0483765076637002e-01 -1.2788851761354010e+00 -4.3005649780471861e-02 2.2493029536250048e-01 5.3317922073934565e-01 
117 1 7.0608448680203961e-01 5.1938776911247064e+00 -7.4530688400918761e+00 -1.4500312832456308e+00 1.2399352721378327e+00 -1.2559203801854097e+00 1.3668333406589728e-01 -1.4107952646582689e-01 4.3560893862579420e-01 
57 1 1.4207392425789338e+00 4.3285714874923512e-02 -8.1508056197855847e+00 -6.7900004574649231e-01 1.4635636148657658e+00 -1.2852518331183951e+00 -7.2620187454226270e-02 3.9432775415333271e-02 7.5328757981282601e-01 
347 1 1.6780928348939979e+00 4.7574195641629409e+00 -7.3600244658116685e+00 -7.3464973973377967e-01 1.3991982450493234e+00 -1.2446326700472505e+00 1.4356903968062701e-01 3.0188016237146253e-01 2.4767194209773105e-01 
340 1 4.0390575505562021e+00 3.1519425123950134e-01 -8.0198581909434736e+00 5.7991944876144119e-01 1.4169895600882549e+00 -1.2682711254631105e+00 -1.9442360313551224e-01 1.5090114467251015e-01 2.7223555233940322e-01 
31 1 5.0544707561520381e+00 5.1610823236182191e-01 -7.6912801662641668e+00 1.0882218508472645e+00 1.2282486994143584e+00 -1.2424215643291900e+00 -7.0646404726716655e-02 1.1426641950901055e-01 2.0453397694743589e-01 
404 1 3.1785669267684487e+00 1.1524316897015003e+00 -7.6635765022151956e+00 5.1086657801826163e-01 -1.0987582918900161e+00 -1.2108263914764210e+00 1.2196144880341406e-01 -2.9789131705241091e-02 3.4883164713019260e-01 
80 1 7.2287436542799510e-02 1.5262635207738635e+00 -8.0693248749316364e+00 -1.3583782803844817e+00 -4.6798863613693131e-01 -1.2068835032134033e+00 -1.7223318421749489e-01 4.0169901245082745e-01 3.2549673054486616e-01 
348 1 2.1198326786562252e+00 9.0642600341129276e-01 -7.9895897794152182e+00 -1.8789820629520820e-01 -4.9991098525419003e-01 -1.2087907287758042e+00 -9.5962181853161868e-02 1.8268339054746102e-01 1.4976505765921996e-01 
67 1 3.6715869425230703e+00 2.0551810973704439e+00 -7.4716675238862704e+00 9.2502546293220111e-01 -3.9263177062941679e-01 -1.2160133102449127e+00 -1.2053377865998188e-01 2.0330946042732123e-01 -1.0641769746112119e-01 
7 1 6.9145808033597489e-01 3.2776036244000344e+00 -7.6441076188393051e+00 -9.0377018450323843e-01 -1.0654900523632292e-01 -1.1535960952772473e+00 2.5184212879622248e-01 -3.4990983135423814e-02 3.5755306179994450e-01 
100 1 2.7035252273661410e+00 1.9699131381759112e+00 -6.9385013960194444e+00 2.0808847274651479e-01 -3.0820431585976787e-01 -1.2286715098234280e+00 8.4702880573295669e-02 -7.7790544154055549e-02 4.6236659189557178e-01 
167 1 4.5892766914030556e+00 2.4152487416508253e+00 -7.9518880714483613e+00 9.8155201978002482e-01 -2.4976712313075208e-01 -1.2234062096967397e+00 2.7824772301470641e-01 9.1351262161515290e-02 5.7543953202580478e-01 
153 1 3.0122655736993202e+00 2.8937349125781751e+00 -7.3929993427135559e+00 1.5683535000430643e-01 2.2592913361572836e-01 -1.1794695450253445e+00 3.9269667554309669e-02 2.0024804063534932e-01 3.8035057178711090e-01 
473 1 2.4844592040806565e-01 4.2120267449129418e+00 -7.3373794494494522e+00 -1.1524752361320370e+00 6.3585874813178733e-01 -1.1918034680659964e+00 -2.7334339389995677e-01 2.2470533835281703e-01 3.4982737380511497e-01 
213 1 1.6065670629641795e+00 3.7850763395015630e+00 -7.9136669708651732e+00 -7.2457726079168427e-01 6.4370792038743174e-01 -1.2011787415981892e+00 8.0032391579289541e-02 1.7984491316647150e-01 2.0365374383369358e-01 
410 1 4.3538508855125473e+00 4.1919903211331500e+00 -7.4577826229657287e+00 7.9407790413684332e-01 5.4375742214108924e-01 -1.1552724703809911e+00 -2.6470537543776051e-02 1.8111537640911771e-01 3.9064424209645560e-01 
300 1 1.5135303630696941e+00 3.6626711627444969e-01 -7.1695582289836173e+00 -4.7578233811575849e-01 1.4117628560874891e+00 -1.1598763502363523e+00 -3.1870851764336028e-01 2.2824132349781281e-01 -2.6403651532587796e-01 
450 1 3.5135482288594235e+00 4.8877763385326993e+00 -7.7811049525144869e+00 7.6080859923628497e-01 1.3578600576271533e+00 -1.1820382372765419e+00 -1.8170728838516427e-02 2.1186876791582396e-01 4.4525273841044066e-01 
464 1 3.2963055543559094e+00 2.1036901891412729e-01 -7.1342661140228305e+00 6.5389641027360157e-01 -1.2616779497734416e+00 -1.1124921836499424e+00 -6.0722609516097002e-03 1.6260694332188855e-01 4.4888438307261452e-01 
468 1 4.4129978757388857e+00 5.2579124341452417e+00 -7.2092221389711426e+00 7.4110687357741079e-01 -1.4089031376390648e+00 -1.0980271349216866e+00 -2.7274328749086235e-01 -3.4497677315688792e-02 3.6770813548834419e-01 
480 1 4.1320168669787932e-01 5.9579196561180880e-01 -7.0335506106916084e+00 1.3706610687775231e+00 -1.3106970160893416e+00 -1.1438029075189329e+00 7.1587498219315648e-02 2.7534750050944545e-01 1.5618235104663553e-01 
15 1 4.1476248258332120e+00 9.4109117439648005e-01 -7.1596748713264846e+00 1.0209334582954543e+00 -9.4978382891951740e-01 -1.1430943912638794e+00 2.5329287428237840e-01 -7.9060203328545478e-02 4.1625186995348790e-01 
390 1 4.9364078261946629e+00 4.5220178162571900e-01 -6.6137424348319405e+00 1.0439606720897796e+00 -9.2728081853046118e-01 -1.1355171216230409e+00 -3.0536866647160993e-01 6.3692309072444298e-01 6.7654547231639206e-01 
361 1 5.1742113462393018e+00 1.3841797847707893e+00 -7.0835476667703965e+00 1.0879279722910709e+00 -7.7918123066062650e-01 -1.1128761189231415e+00 -9.6139033107714121e-03 -3.1014183330496277e-02 7.0395487716259153e-01 
248 1 6.9767651256502172e-01 1.6256452491811813e+00 -6.9662335279556364e+00 -1.2959328244822605e+00 -5.2694435295729614e-01 -1.1316223150323674e+00 9.7725769877338386e-02 2.1101451526094017e-01 3.6236693595393854e-01 
458 1 1.9352265676127371e+00 2.7879285271624310e+00 -7.3686096899457070e+00 -6.7073583305217843e-01 -3.6558789756077814e-01 -1.1166180454822268e+00 1.6278599067435223e-01 2.2932870894762425e-01 4.3260483438599773e-01 
400 1 3.4705493991552214e+00 1.4069930004822941e+00 -6.4998417634816130e+00 6.7976023385764783e-01 -4.7286562546130662e-01 -1.0844080896280408e+00 3.8953513241918479e-03 3.8206319577864978e-01 2.4694287188701022e-01 
313 1 3.5175870911894930e-03 2.3989239166629357e+00 -7.3614085641808256e+00 -1.2913800297825671e+00 -2.3458489582849440e-01 -1.1211777973414723e+00 3.2965723355020682e-02 2.9550163162629994e-01 8.3511706942394248e-01 
135 1 4.5147191886264704e+00 2.1408595116161866e+00 -6.8587841141094712e+00 8.1461301586993162e-01 -2.7348141650052177e-01 -1.0665077891010697e+00 -2.8376698398813283e-01 -3.6918966926904312e-01 3.5776410090873489e-01 
143 1 5.0941517936862031e+00 3.3744212915180722e+00 -7.4569584302857317e+00 -1.3401882952562119e+00 3.4524717221855505e-01 -1.1434780343800641e+00 -2.2725497508088952e-01 1.2012992889639752e-03 8.0872249201305119e-02 
368 1 4.0670106721852557e+00 3.1346738375341712e+00 -7.3418287598502294e+00 7.6841789147022743e-01 2.4860822321460446e-01 -1.1443159598097550e+00 6.4489627025358140e-02 -8.4469447125292349e-02 1.9088025179754833e-01 
34 1 3.3163379961731376e+00 3.9151639370570948e+00 -7.2502141762020589e+00 1.1620520374073691e-01 4.6142346350866426e-01 -1.1386682589168020e+00 2.0767871047110703e-01 -5.2192296480035427e-02 3.8334500847750794e-02 
148 1 2.6736000359194927e+00 4.8437602709493142e+00 -6.9064640658185503e+00 -5.7846420018345134e-02 1.0991728868520365e+00 -1.0972500354901682e+00 -1.7738895992308779e-01 2.2771878959359992e-01 2.2411907461253802e-01 
388 1 4.5020748217663717e+00 1.3028189470568137e+00 -6.1968315646816130e+00 8.7756472390368712e-01 -6.1921845023049960e-01 -1.0670712985465012e+00 2.9295928349624017e-01 -8.1402853188052016e-01 3.6140180825131640e-01 
272 1 1.3529624480975880e-01 2.3321616280789681e+00 -6.3222906735014401e+00 -1.4949524051067353e+00 -2.8011013286433989e-01 -1.0674390887316185e+00 1.2211566195523993e-01 1.7103506725875478e-01 9.5314013703342582e-01 
183 1 1.1518682584635804e+00 8.2456857323725397e-01 -6.2869007865867168e+00 -5.0699665836139374e-01 -1.3492379434489830e+00 -9.7625002574807906e-01 -1.1069342875755739e-01 -1.5241157151610257e-01 3.0455433239357499e-01 
173 1 5.4038998406684895e+00 5.0491361716486871e+00 -6.7998705076483121e+00 9.0786920850277686e-01 -1.4226775067075477e+00 -9.9267792318466086e-01 4.7835463237291692e-01 -5.3992865112184918e-01 1.3493198344036947e-01 
220 1 2.4385566946329953e+00 8.6796976943881354e-01 -6.9582261961442002e+00 4.6448504925220419e-01 -7.7777987360302681e-01 -1.0145637628030586e+00 -1.7786604010344770e-01 6.0474064276485759e-02 1.8626029135671238e-01 
262 1 3.9168310406190061e+00 2.9830179867861550e-01 -6.2807729381242252e+00 5.7419626623691811e-01 -9.5535628572912690e-01 -9.8219314653025802e-01 1.9044756761317774e-01 1.7228262190160382e-01 2.5283524988640854e-01 
91 1 1.0175670183420775e+00 2.6750937114912774e+00 -6.8132789975750718e+00 -1.0237999844883274e+00 -3.7796621208494630e-01 -1.0020758184071559e+00 8.9447165838734355e-02 -1.3336416332559456e-01 -7.6620748450637599e-03 
378 1 1.7312086550544570e+00 1.6653226787050126e+00 -7.2561464946448107e+00 -5.0520412627056643e-01 -5.4002073161455333e-01 -1.0222961173052882e+00 -1.8177433505295404e-01 1.9628987127961814e-01 2.0752370424854399e-01 
73 1 2.8821079523016122e+00 2.1481423830431310e+00 -5.9148712784653394e+00 -1.0259122512140323e-01 -3.8930372953314119e-01 -9.8557891867166381e-01 1.2106088239314852e-01 2.2991558098908402e-01 2.6482127572758268e-01 
79 1 2.6485677309395856e+00 3.0439864646442256e+00 -6.4319870995692110e+00 -9.8208883561177615e-02 -2.9963223570548404e-02 -1.0308407775244623e+00 -9.2371220550298047e-02 2.0010688325372733e-01 2.6127877020582413e-01 
328 1 3.6305894174547602e+00 2.6341457267993862e+00 -6.5198976466436962e+00 6.6826311403609973e-01 -2.0701885080148899e-01 -1.0409993199159628e+00 -1.4816518967909703e-01 3.0244232985637380e-02 4.8168897896198315e-01 
417 1 1.1592451478418850e+00 3.9597795914608436e+00 -6.8618835237750089e+00 -1.1898192508134464e+00 3.9741426585775735e-01 -9.7543743743065836e-01 1.1626753247497845e-03 2.2563933963703467e-01 3.0409367400030646e-01 
283 1 2.2225520249842399e+00 3.8082279022917582e+00 -7.0289218697292046e+00 -6.0787899823050284e-01 6.2592795715024196e-01 -9.8675055430729197e-01 -1.0424955238634957e-01 8.9416269687576252e-02 1.5534806648076724e-01 
411 1 3.9575665215998272e+00 3.6752232885372278e+00 -6.3609573799527830e+00 6.1405208309972514e-01 4.5392996511336769e-01 -1.0150563422593741e+00 1.7682980309104340e-01 1.1804439728236694e-01 6.7021230213320182e-02 
476 1 2.0282968135208388e+00 4.7604039006367213e-02 -6.3146587119857944e+00 -1.2026431896107634e-01 -1.3105085420499347e+00 -9.0790669107906330e-01 1.4079472349355987e-01 -1.2287321422836275e-01 6.3220811868687343e-01 
362 1 4.6179325546590286e+00 5.0161764973575638e+00 -6.0276370151260661e+00 7.4529881477324367e-01 -1.3178345921543064e+00 -9.0177831271507258e-01 -8.7070069055255939e-02 -2.2824434257728352e-01 2.3750097474272946e-01 
452 1 2.8930721718459327e+00 6.4756786500589469e-01 -6.0224558998171336e+00 -2.4880048202252980e-01 -8.9080874372737728e-01 -8.9283135501783761e-01 1.4046863675852306e-01 -1.5797735039870472e-02 2.5827362867298997e-01 
140 1 4.8433722450730698e+00 5.0779374895403595e-01 -5.5606294846737105e+00 9.3650420280103119e-01 -9.6739041062099906e-01 -9.4642969719980330e-01 3.2966699258192788e-03 -4.3451265962005506e-02 9.0912813111700075e-02 
344 1 1.0303489560914056e+00 1.8290942838527056e+00 -5.9800756379282571e+00 -1.1289988322936579e+00 -5.8746206267992096e-01 -9.2269316030558624e-01 3.8617822975941807e-01 -2.0561366259880826e-01 1.0661143127031519e-01 
180 1 1.8820331102484653e+00 2.3278668372388585e+00 -6.3521279999843623e+00 -3.5847687771377096e-01 -1.2799085220203568e-01 -9.1692149200368978e-01 1.0871234482585201e-02 -9.1898653683810727e-02 8.0066195720705120e-03 
239 1 4.7902482677099343e+00 3.0386971371852556e+00 -6.4403546539014647e+00 6.7018922331728514e-01 -8.4556764490763270e-02 -9.3516333227153392e-01 1.6812614092861355e-01 1.2328197814070325e-01 -4.3229405990654157e-01 
36 1 2.6711859483772682e-01 3.3924407883886176e+00 -6.6202361609751108e+00 -1.3975826949580641e+00 2.7548249640608286e-01 -9.6359886660751737e-01 1.6056230559894757e-01 -1.2193490190918443e-01 4.3960647445515810e-01 
150 1 5.4517217362571602e+00 3.1401846736827945e+00 -5.5862694795666030e+00 -1.4092752186741775e+00 1.8896297897988693e-01 -9.3079416917699853e-01 -1.2274006932644820e-01 5.8622511022431578e-01 2.7661309806913320e-01 
219 1 1.6893228409447287e+00 3.3749918501872802e+00 -6.1606734654992481e+00 -7.1623525787930065e-01 1.2197660305885624e-01 -9.6462014786798844e-01 -9.9937328227158284e-02 -4.4808475409951587e-02 7.4685566868039149e-02 
334 1 3.2992678891852179e+00 3.1846683608437329e+00 -5.6103006969318479e+00 5.1616788035345651e-01 4.6621139631965618e-02 -9.3192557178829338e-01 -3.2389215278161931e-01 7.6383768688596101e-02 3.4720392348003076e-01 
373 1 7.7890410163945112e-01 3.7769784600760361e+00 -5.7746930664282647e+00 -8.6884319981740354e-01 5.5388983559289795e-01 -9.0344349028689963e-01 -2.9834466366501999e-02 1.5793998304187262e-02 1.8352479535706601e-01 
415 1 2.9542709408827492e+00 4.0469364800502232e+00 -6.2642894291114191e+00 -3.4918267229212924e-01 6.9501058422183593e-01 -9.0267505453954888e-01 1.9381566180756640e-01 -5.1410571762207401e-04 4.4485040190827224e-01 
122 1 3.7125629112470491e+00 4.3414995633307099e+00 -5.5401260405107271e+00 5.5072672399271305e-01 3.8328733836026446e-01 -9.3196381432231545e-01 -1.1602388918861305e-01 1.1010666320746575e-01 4.1550347310688407e-01 
370 1 4.9472831306097902e+00 4.1070110029354465e+00 -6.5671555663021017e+00 1.3983255311269303e+00 4.2358139893563190e-01 -9.5247637808696506e-01 2.4831437957890473e-01 1.3371599463373707e-01 3.9975151794653452e-01 
478 1 1.9400509133237691e+00 4.4416344426348235e+00 -6.1340883629703926e+00 -6.9769459013387825e-01 9.6556123015772144e-01 -9.5954977244375328e-01 1.3826183677275752e-01 8.7739030006524568e-02 1.4377232689022953e-01 
259 1 1.0300948220525878e+00 4.9957771907314461e+00 -6.4319143026199077e+00 -1.0762123698800925e+00 1.1949486333836925e+00 -9.4532124256631700e-01 -4.3262360790703447e-02 2.7876992936004152e-01 3.7114957242586966e-01 
485 1 3.7392751515177975e+00 4.7126967622946569e+00 -6.6261551856225980e+00 4.1821045404898893e-01 1.3404309353726005e+00 -9.3459958254743669e-01 2.4505229305468212e-01 8.9257377094689755e-02 2.3027132773231607e-01 
396 1 2.6920491364948917e-01 1.8160510555423748e-01 -6.0203359027072141e+00 -1.3153461816116196e+00 -1.3788846365306879e+00 -8.4443679206756361e-01 -1.2442565769470715e-01 8.5597752221724444e-02 8.1796879490780405e-02 
254 1 3.0389874302552924e+00 5.1053788899510151e+00 -5.9113142657430098e+00 3.2018584528346122e-01 -1.4266818557958951e+00 -8.6267288203006365e-01 7.9766894872173935e-02 2.3953665501276328e-02 3.3580957574180427e-02 
28 1 3.9063913256136358e+00 5.4011372063056902e+00 -5.2682571884781062e+00 7.5454384498156712e-01 -1.3213209659696212e+00 -8.6152374931062436e-01 9.3304778054081688e-02 -8.7216772837847470e-02 2.3535081380810960e-01 
124 1 9.4804258449936563e-02 1.2418633938272940e+00 -6.0603475074336020e+00 -1.2669884754973801e+00 -7.3590696648829745e-01 -8.8548521434047323e-01 4.7682816647162785e-02 -9.3594466834567180e-02 4.1244680718001447e-01 
241 1 2.0725350980052064e+00 1.3440980796031721e+00 -6.0636316959128216e+00 -6.2192128756794895e-01 -8.3987182770943070e-01 -8.7787729142188253e-01 1.4515233609789621e-01 5.1933877698253743e-03 4.6091389660766552e-01 
391 1 5.3459376461026586e+00 1.3238942363251349e+00 -4.9189264234285339e+00 1.3502717406640619e+00 -9.7505984624326769e-01 -8.4800779039072804e-01 -4.1256244266785663e-01 -6.5816229925078448e-02 2.1800635825758921e-01 
429 1 4.9551416518070539e+00 2.0524600187716961e+00 -5.6013600525536589e+00 1.0443589640132633e+00 -9.6762388280387676e-02 -8.4999489359210800e-01 -3.5522864058645312e-02 -4.9081773379922519e-02 1.9233563533017065e-01 
32 1 1.0750096175085360e+00 2.7583650065071708e+00 -5.5098372640720363e+00 -1.1390749331635970e+00 1.0715452071143884e-01 -8.7746623196383600e-01 -8.8018510549629170e-02 1.5706863626364770e-01 -6.1705431890306250e-02 
165 1 2.1917613074629934e+00 2.7580134420105797e+00 -5.4171147947650145e+00 -2.1035946690085278e-01 1.9420035490298798e-01 -8.5982594571858961e-01 -1.7858863664047059e-01 7.5823507432412715e-02 5.8857151213102177e-01 
90 1 4.3895821821065883e+00 2.9464762804787763e+00 -5.4522907247414878e+00 1.0241401709524518e+00 1.7327044757404805e-01 -8.1434275881448814e-01 -3.7049141513349965e-01 8.9988112985514301e-01 9.0510273511087327e-02 
299 1 2.6486916868581045e+00 4.0010713081259182e+00 -5.2814264719778752e+00 -1.7982123894257812e-01 3.8747897238166673e-01 -8.4605794949563062e-01 7.4543593528538232e-02 -2.3397530014739824e-02 -6.4388916764900037e-02 
86 1 4.9291237888430173e+00 5.0870283560205420e+00 -4.9504231981900286e+00 9.9628587890048337e-01 1.1120981493415480e+00 -8.1459870064587081e-01 1.9638763556930378e-01 9.3582570384070460e-02 3.4879022664736553e-01 
231 1 1.3123610240432257e-01 4.6332425501909142e+00 -5.8229314471902116e+00 1.2718885872036509e+00 9.4341368611561971e-01 -8.5637807655947784e-01 2.6952273184096265e-01 2.1836820778221133e-01 6.7205096815335530e-01 
197 1 2.9486190875158589e+00 3.8168996245592696e-01 -5.0027127567083953e+00 3.4199538413847325e-01 -1.3471328033530028e+00 -7.7660399905035560e-01 -6.3795517843563090e-02 4.3497308470424156e-01 1.3652743860467853e-01 
168 1 8.7934855948527779e-01 1.1092302215729646e+00 -5.2156925471041466e+00 -1.1127886873980048e+00 -7.9974444134542289e-01 -7.6789636163474917e-01 -2.8398080542205162e-02 1.5181481819691744e-01 3.9572539863672351e-01 
405 1 1.6993200853536459e+00 1.8252523119772353e+00 -5.0915096856003652e+00 -7.7244525714140144e-01 -5.6407862893737093e-01 -7.7677540784360821e-01 3.9717011538716346e-02 2.6284264630991799e-01 1.4992187951335406e-01 
418 1 3.9027867949810342e+00 2.0254693114005660e+00 -5.7043196545890877e+00 4.2909112939675464e-01 -4.9063721853656250e-01 -7.2930259071647607e-01 -5.5184587642713934e-01 9.7608619164060495e-02 1.2928402031862804e-01 
142 1 1.2127910079065185e+00 4.5906534318537195e+00 -5.2977742419647385e+00 -8.0673404121243675e-01 7.0635937155859119e-01 -7.2975893724215690e-01 -2.0025939763755018e-01 2.1580235146758098e-01 3.4582398376699724e-01 
460 1 1.1811757589345249e+00 1.0302664250891172e-01 -5.5158090581667754e+00 -1.0554466902888233e+00 1.3210768233170105e+00 -7.9080791128629979e-01 1.1999787341206702e-01 3.9467373453314011e-02 3.0123331496430394e-01 
238 1 2.1473231207777599e+00 5.1826298635012140e+00 -5.3379081392927770e+00 -4.5904884580758332e-01 1.2000195480697058e+00 -7.4028006696652737e-01 2.0483587988818178e-02 4.5379773487223329e-01 -1.1304260386902422e-01 
138 1 2.4171099441802901e-01 2.9989334916407501e-01 -4.9433659132179670e+00 -1.0454869156932096e+00 -1.3286354526631987e+00 -6.6104912572936803e-01 -1.7466673331834359e-01 -1.8821602418810737e-01 1.6966686190280911e-01 
93 1 1.9405510383328135e+00 7.4357876755371466e-01 -5.1757611506487038e+00 -6.5436096347888661e-01 -7.4112958302130449e-01 -7.0839236849028009e-01 -1.6045587649350859e-01 8.7107301867073245e-02 1.5033841049963523e-01 
419 1 3.7711955226223965e+00 9.8532000618175686e-01 -5.4654852998339321e+00 4.6605383412243351e-01 -7.9729523448691930e-01 -6.4909418494487137e-01 -1.0209545420052035e-01 -2.9063873249043137e-01 6.0570140749902301e-01 
72 1 2.7691777234079078e+00 1.4212260516064796e+00 -5.2033793630235783e+00 -7.1530376047482774e-02 -2.0769291300716686e-01 -6.4281495526575527e-01 2.0498132234945624e-01 -1.5948740679631754e-01 5.1238190658584370e-01 
301 1 1.6525250723496061e+00 3.6479164175373344e+00 -5.0910399658574645e+00 -5.3689558533779702e-01 4.0685414977710999e-01 -6.3580445384975370e-01 -4.2293200810035558e-01 6.3662601765261645e-02 1.4822897414859804e-01 
349 1 4.7462873498968561e+00 4.0353040969826441e+00 -5.5001239955939321e+00 1.1912811495594893e+00 6.5978650861787136e-01 -6.9274702863354642e-01 -1.0269798425091342e-01 3.6113344840333034e-01 5.6213961009931956e-01 
174 1 4.0690704315141737e+00 4.5955300453036338e+00 -4.5280241199865898e+00 9.1515648500266611e-01 8.5131310826531303e-01 -8.0727308331614156e-01 -3.2670794663660695e-03 -7.1529007317439025e-02 4.0723688446127437e-01 
185 1 4.3156554568822303e+00 1.6912587203648131e+00 -4.7647054916457945e+00 1.1430862363370238e+00 -1.7891799324698512e-01 -7.6758758443605291e-01 -2.5521365324265860e-01 1.3108230262212092e-01 -1.3304323919536468e-01 
154 1 5.3697372261894145e+00 2.4901491453031257e+00 -4.7334762718967838e+00 -1.4795804504933936e+00 7.9078233015738048e-02 -7.3793235053995276e-01 3.5524527954294338e-01 -1.3989274462092699e-01 -5.6212218958519952e-02 
225 1 6.2248450090235508e-01 3.3210303162009214e+00 -4.7236714076794657e+00 -1.3117640021391750e+00 1.9106647944701641e-01 -7.5870538456970449e-01 -1.9020657051929191e-01 4.7502825948270749e-01 -2.5951255830426034e-01 
44 1 2.2269704205536744e-01 4.3640382263634097e+00 -4.7826307354571629e+00 -1.2801567976052575e+00 7.5991262053411901e-01 -7.1890131362889642e-01 4.5281691412411007e-03 -5.3769079254057184e-01 1.8697295054642460e-02 
106 1 1.5660573754660045e-01 5.2487805365451727e+00 -4.0527391852877841e+00 9.5758105282111705e-01 1.4567922125658026e+00 -7.5251869767265367e-01 -1.5005786626422157e-02 -3.6800755013088526e-01 2.4911343834830912e-01 
483 1 4.3828627790887298e+00 6.2441868256362754e-01 -4.6347087481037796e+00 6.9088735729905582e-01 -1.0936676333968118e+00 -6.7395104842301934e-01 2.9267147128839066e-01 -7.4080155761222483e-02 3.6668865940099471e-01 
499 1 3.4211664024098867e+00 2.4354744869902816e+00 -4.8541143347859430e+00 4.0381218913764289e-01 -2.4467639228090421e-01 -6.8531476853276940e-01 -7.3456173267977751e-02 3.2416523899578054e-01 -1.7162203350216981e-02 
406 1 2.6290835030917994e+00 3.1957018198388685e+00 -4.5793121229980258e+00 3.6470551045890288e-02 1.8775810980128788e-01 -6.5852170679990962e-01 -2.0790318507022651e-01 -3.5655722788149447e-01 1.8881940842279119e-01 
158 1 3.8783710486669709e+00 3.5574219123703958e+00 -4.7920169942328981e+00 8.2791369193132258e-01 4.5517189318051510e-01 -6.6448006479907518e-01 7.6239986014005268e-01 -5.5287977849278769e-01 -7.1809377786674977e-01 
144 1 1.1370345175217322e+00 5.2748931068068616e+00 -4.4843690950741708e+00 -5.1837559247939535e-01 9.0295595071655699e-01 -6.5496131077287612e-01 -8.6799092806003508e-02 1.9317313563728504e-02 2.5233609644276661e-01 
488 1 2.1742073391599344e+00 5.1825972226262222e-02 -4.3189034957199386e+00 -3.2173858507068009e-01 -1.2745557763395230e+00 -5.9788795340343570e-01 -1.0601067094966457e-02 3.8120631326005511e-01 2.2397435630836732e-01 
209 1 2.0794179790024963e+00 4.5110196188388212e+00 -4.5489280364046909e+00 -1.3568337092336477e-01 4.7052491219672438e-01 -6.2354227993003297e-01 -6.8617333622288534e-01 -7.4851092765378102e-01 1.0562618317432486e+00 